-2.161770591590000095e+03
-2.161825169109999933e+03
-2.161823755219999839e+03
-2.161818664479999825e+03
-2.161831290279999848e+03
-2.161847625079999943e+03
-2.161847311429999991e+03
-2.161807521879999967e+03
-2.161696959809999953e+03
-2.161487766409999949e+03
-2.161186277480000172e+03
-2.160849930760000007e+03
-2.160569035429999985e+03
-2.160413417579999987e+03
-2.160392414439999811e+03
-2.160456985190000069e+03
-2.160534413769999901e+03
-2.160566504110000096e+03
-2.160534305940000195e+03
-2.160468328750000182e+03
-2.160423086950000197e+03
-2.160434487749999789e+03
-2.160504337450000094e+03
-2.160612124310000127e+03
-2.160726067930000227e+03
-2.160808271819999845e+03
-2.160816793930000131e+03
-2.160728720999999950e+03
-2.160576493260000007e+03
-2.160446438330000092e+03
-2.160427550410000094e+03
-2.160541836429999876e+03
-2.160726808339999934e+03
-2.160897719030000189e+03
-2.161005799130000014e+03
-2.161050184910000098e+03
-2.161059241829999792e+03
-2.161073477320000165e+03
-2.161136818020000192e+03
-2.161282750599999872e+03
-2.161511391479999929e+03
-2.161777995360000205e+03
-2.162017643130000124e+03
-2.162182348570000158e+03
-2.162255177600000025e+03
-2.162247619860000214e+03
-2.162202242800000022e+03
-2.162187311900000168e+03
-2.162261148009999943e+03
-2.162425571599999785e+03
-2.162620116059999873e+03
-2.162762156490000052e+03
-2.162795277629999873e+03
-2.162724970169999779e+03
-2.162616795970000112e+03
-2.162555687779999971e+03
-2.162588346250000086e+03
-2.162705001979999906e+03
-2.162865519039999981e+03
-2.163023532300000170e+03
-2.163139105620000009e+03
-2.163190638030000173e+03
-2.163186295789999804e+03
-2.163160836409999774e+03
-2.163162564899999779e+03
-2.163232564299999922e+03
-2.163370751840000139e+03
-2.163523271990000012e+03
-2.163608114199999818e+03
-2.163561257129999831e+03
-2.163376434480000171e+03
-2.163105277390000083e+03
-2.162823703179999939e+03
-2.162593973739999910e+03
-2.162453605149999930e+03
-2.162427586360000078e+03
-2.162511608360000082e+03
-2.162649384830000145e+03
-2.162748250780000035e+03
-2.162733860780000214e+03
-2.162601289790000010e+03
-2.162422716019999825e+03
-2.162308975389999887e+03
-2.162340146550000100e+03
-2.162507536999999957e+03
-2.162713576820000071e+03
-2.162831399789999978e+03
-2.162792540299999928e+03
-2.162624457139999777e+03
-2.162417516420000084e+03
-2.162257082990000072e+03
-2.162184093070000017e+03
-2.162198432250000224e+03
-2.162284315429999879e+03
-2.162420635330000096e+03
-2.162565323700000135e+03
-2.162658989489999840e+03
-2.162654676319999908e+03
-2.162548337170000195e+03
-2.162388596570000118e+03
-2.162262663720000091e+03
-2.162243670199999997e+03
-2.162343501519999791e+03
-2.162505938650000189e+03
-2.162647218749999865e+03
-2.162713027249999868e+03
-2.162706174320000173e+03
-2.162661217580000084e+03
-2.162601513040000100e+03
-2.162539028170000165e+03
-2.162499860779999835e+03
-2.162515627360000053e+03
-2.162586546489999819e+03
-2.162668760189999830e+03
-2.162702408629999809e+03
-2.162652267899999970e+03
-2.162534696879999956e+03
-2.162416731540000001e+03
-2.162376814589999867e+03
-2.162441428210000140e+03
-2.162561476259999836e+03
-2.162648692730000221e+03
-2.162630694099999801e+03
-2.162497371909999856e+03
-2.162308174539999982e+03
-2.162150684849999834e+03
-2.162088967289999800e+03
-2.162136368569999831e+03
-2.162268477760000223e+03
-2.162443985290000001e+03
-2.162619098130000111e+03
-2.162756359840000187e+03
-2.162829808519999915e+03
-2.162828120359999957e+03
-2.162766376229999878e+03
-2.162691267210000206e+03
-2.162657199360000050e+03
-2.162689240029999837e+03
-2.162774078209999971e+03
-2.162879952610000146e+03
-2.162969798529999935e+03
-2.163015260659999967e+03
-2.163017782259999876e+03
-2.163005240689999937e+03
-2.163002489619999778e+03
-2.163015037260000099e+03
-2.163023078109999915e+03
-2.162995640780000031e+03
-2.162921751899999890e+03
-2.162829795529999956e+03
-2.162767071010000109e+03
-2.162765552329999991e+03
-2.162831046610000158e+03
-2.162953095329999996e+03
-2.163114442999999937e+03
-2.163284623349999947e+03
-2.163413948320000145e+03
-2.163451558180000120e+03
-2.163375223999999889e+03
-2.163210783309999897e+03
-2.163020436150000023e+03
-2.162871475070000088e+03
-2.162817049249999855e+03
-2.162880300660000103e+03
-2.163036621379999815e+03
-2.163207983499999955e+03
-2.163303708720000031e+03
-2.163284467980000045e+03
-2.163192984249999881e+03
-2.163123475429999871e+03
-2.163166508159999921e+03
-2.163355775030000132e+03
-2.163649468539999816e+03
-2.163950322579999920e+03
-2.164144185789999938e+03
-2.164150827120000031e+03
-2.163969383749999906e+03
-2.163684500039999875e+03
-2.163422381790000145e+03
-2.163288734600000225e+03
-2.163336679710000226e+03
-2.163560576960000162e+03
-2.163891238040000189e+03
-2.164213434130000223e+03
-2.164415165649999835e+03
-2.164434531110000080e+03
-2.164278858629999831e+03
-2.164023297019999973e+03
-2.163784127469999930e+03
-2.163675807850000183e+03
-2.163761415429999943e+03
-2.164018949820000216e+03
-2.164348302389999844e+03
-2.164612043229999927e+03
-2.164700135930000215e+03
-2.164580890019999970e+03
-2.164302921429999969e+03
-2.163960285170000134e+03
-2.163657633060000080e+03
-2.163476520849999815e+03
-2.163444440929999928e+03
-2.163521920770000179e+03
-2.163622228199999881e+03
-2.163657102050000049e+03
-2.163584910730000047e+03
-2.163434514409999792e+03
-2.163292358780000086e+03
-2.163253208019999875e+03
-2.163359768799999983e+03
-2.163573117999999795e+03
-2.163794217879999906e+03
-2.163923553510000147e+03
-2.163920069660000081e+03
-2.163812463830000070e+03
-2.163654072480000195e+03
-2.163470837029999984e+03
-2.163270039479999923e+03
-2.163079837029999908e+03
-2.162951622349999980e+03
-2.162922264329999962e+03
-2.162972786350000206e+03
-2.163033556020000105e+03
-2.163032809880000059e+03
-2.162940952439999819e+03
-2.162784971890000179e+03
-2.162626487460000135e+03
-2.162525431959999878e+03
-2.162505960049999885e+03
-2.162548784640000122e+03
-2.162620981519999987e+03
-2.162704400300000088e+03
-2.162787394800000129e+03
-2.162849329550000220e+03
-2.162873149479999938e+03
-2.162867190290000053e+03
-2.162854440049999994e+03
-2.162848984339999788e+03
-2.162851620169999933e+03
-2.162854513379999844e+03
-2.162842370700000174e+03
-2.162801159720000214e+03
-2.162725133450000158e+03
-2.162621106990000044e+03
-2.162512744589999784e+03
-2.162438758719999896e+03
-2.162440299049999794e+03
-2.162540404200000012e+03
-2.162736322279999968e+03
-2.163008950240000104e+03
-2.163318425389999902e+03
-2.163596622590000152e+03
-2.163761452749999989e+03
-2.163759407290000127e+03
-2.163610561840000173e+03
-2.163402081279999948e+03
-2.163229484649999904e+03
-2.163137725340000088e+03
-2.163122643130000142e+03
-2.163162371200000052e+03
-2.163225963530000172e+03
-2.163271650390000104e+03
-2.163257584840000163e+03
-2.163163577620000069e+03
-2.163016192739999951e+03
-2.162885583180000140e+03
-2.162846553400000175e+03
-2.162920694999999796e+03
-2.163060940429999846e+03
-2.163200932329999887e+03
-2.163314352989999861e+03
-2.163417525920000116e+03
-2.163529832499999884e+03
-2.163640984929999831e+03
-2.163718869950000226e+03
-2.163743694440000127e+03
-2.163731796009999925e+03
-2.163724060829999871e+03
-2.163742777479999859e+03
-2.163761953189999986e+03
-2.163714396519999809e+03
-2.163545993679999810e+03
-2.163269493020000027e+03
-2.162978506599999946e+03
-2.162791153990000112e+03
-2.162774843069999861e+03
-2.162907748030000221e+03
-2.163108113639999829e+03
-2.163295317460000206e+03
-2.163434071080000194e+03
-2.163539556960000027e+03
-2.163642036490000010e+03
-2.163745582210000066e+03
-2.163820898219999890e+03
-2.163839695480000046e+03
-2.163811867209999946e+03
-2.163779232289999982e+03
-2.163767330829999992e+03
-2.163749536660000103e+03
-2.163674236070000006e+03
-2.163522156349999932e+03
-2.163329851210000015e+03
-2.163160491669999828e+03
-2.163050141319999966e+03
-2.162993753090000155e+03
-2.162973180479999883e+03
-2.162978402709999955e+03
-2.163010132580000118e+03
-2.163074240530000225e+03
-2.163169780749999973e+03
-2.163282906540000113e+03
-2.163394016790000023e+03
-2.163491937429999780e+03
-2.163578273149999859e+03
-2.163655341560000124e+03
-2.163714752299999873e+03
-2.163738264199999776e+03
-2.163709943910000220e+03
-2.163627557780000188e+03
-2.163506125490000159e+03
-2.163363717400000041e+03
-2.163207955010000205e+03
-2.163037627929999871e+03
-2.162857847629999924e+03
-2.162687913300000218e+03
-2.162556890020000083e+03
-2.162492045179999877e+03
-2.162507989570000063e+03
-2.162599932080000144e+03
-2.162741329009999845e+03
-2.162894564310000078e+03
-2.163031874599999810e+03
-2.163143043659999876e+03
-2.163222015320000082e+03
-2.163255764349999936e+03
-2.163234455280000020e+03
-2.163168511010000202e+03
-2.163090241830000195e+03
-2.163029388819999895e+03
-2.162996742939999876e+03
-2.162986441789999844e+03
-2.162990086729999803e+03
-2.163008691399999861e+03
-2.163049470880000172e+03
-2.163116216410000106e+03
-2.163202277580000100e+03
-2.163295312209999793e+03
-2.163381782169999951e+03
-2.163458221670000057e+03
-2.163543897059999836e+03
-2.163680233120000139e+03
-2.163901542940000127e+03
-2.164203418990000046e+03
-2.164527736099999856e+03
-2.164779304080000202e+03
-2.164873184560000027e+03
-2.164784687580000082e+03
-2.164570586419999927e+03
-2.164336911360000158e+03
-2.164177977759999976e+03
-2.164124939190000077e+03
-2.164136649420000140e+03
-2.164134433570000056e+03
-2.164053488800000196e+03
-2.163883873889999904e+03
-2.163671414339999956e+03
-2.163486681580000095e+03
-2.163390775649999796e+03
-2.163415725819999807e+03
-2.163556304260000161e+03
-2.163772026090000054e+03
-2.163994640710000112e+03
-2.164145304799999849e+03
-2.164164186210000025e+03
-2.164036080870000205e+03
-2.163803294150000056e+03
-2.163555832760000158e+03
-2.163392707040000005e+03
-2.163369174699999803e+03
-2.163471401839999999e+03
-2.163624626220000209e+03
-2.163732226350000019e+03
-2.163718194470000071e+03
-2.163559212130000105e+03
-2.163296214290000080e+03
-2.163028597800000171e+03
-2.162881448329999785e+03
-2.162948312349999924e+03
-2.163231272479999916e+03
-2.163622675529999924e+03
-2.163954489249999824e+03
-2.164088917569999921e+03
-2.163993421380000200e+03
-2.163758757290000176e+03
-2.163551373870000134e+03
-2.163524270670000078e+03
-2.163729755549999936e+03
-2.164090061760000026e+03
-2.164445428460000130e+03
-2.164643584420000025e+03
-2.164611016859999836e+03
