-1.275300325381541811e+01 2.652902542883877057e+00 -4.264267900586221849e+00 2.652902542883877057e+00 -2.850582707535337335e+01 -1.300705356678649949e+01 -4.264267900586221849e+00 -1.300705356678649949e+01 -1.962350951468538796e+01
-1.098142266700819114e+01 3.771691291955256542e+00 -4.930280488969883912e+00 3.771691291955256542e+00 -2.211361716980139747e+01 -1.243243459960585184e+01 -4.930280488969883912e+00 -1.243243459960585184e+01 -1.198573906290946489e+01
-1.094249746039703020e+01 4.862794775732779406e+00 -5.204138895246053664e+00 4.862794775732779406e+00 -1.681504434135666415e+01 -1.085114990452728101e+01 -5.204138895246053664e+00 -1.085114990452728101e+01 -6.109875477954559209e+00
-1.247744043020834503e+01 6.028109511404482923e+00 -5.115601324705634667e+00 6.028109511404482923e+00 -1.282919531504010990e+01 -8.587591558421570070e+00 -5.115601324705634667e+00 -8.587591558421570070e+00 -2.545247859037382820e+00
-1.519289969566968779e+01 7.239627776343639631e+00 -4.784575839844312561e+00 7.239627776343639631e+00 -1.028689563733185430e+01 -6.008117156766323852e+00 -4.784575839844312561e+00 -6.008117156766323852e+00 -1.493622365870235003e+00
-1.863485533209511757e+01 8.444927221291662178e+00 -4.314571244514493920e+00 8.444927221291662178e+00 -9.290410348086082237e+00 -3.391836553830227086e+00 -4.314571244514493920e+00 -3.391836553830227086e+00 -2.621854508261482142e+00
-2.221698777765400123e+01 9.600337910310821954e+00 -3.645380148135364262e+00 9.600337910310821954e+00 -9.756176932755277420e+00 -9.460898146509649775e-01 -3.645380148135364262e+00 -9.460898146509649775e-01 -5.152131133986880052e+00
-2.544059373439077376e+01 1.066896151145373217e+01 -2.752541858741801128e+00 1.066896151145373217e+01 -1.145386872500119502e+01 1.251687235548545329e+00 -2.752541858741801128e+00 1.251687235548545329e+00 -8.332527808118600277e+00
-2.785616768027972867e+01 1.163905136473714208e+01 -1.632693607005266001e+00 1.163905136473714208e+01 -1.411708990253702467e+01 3.035383005005162893e+00 -1.632693607005266001e+00 3.035383005005162893e+00 -1.161003020477852310e+01
-2.915751334509079840e+01 1.241723303962752745e+01 -3.433249288437842939e-01 1.241723303962752745e+01 -1.727772454869692709e+01 4.347738284467201453e+00 -3.433249288437842939e-01 4.347738284467201453e+00 -1.448266438734908412e+01
-2.924314879963535674e+01 1.277875377511203325e+01 9.151799760283728657e-01 1.277875377511203325e+01 -2.043863558685643156e+01 5.106941042051316160e+00 9.151799760283728657e-01 5.106941042051316160e+00 -1.678892529739390582e+01
-2.837122417154530396e+01 1.257122944874127768e+01 1.919864894595786575e+00 1.257122944874127768e+01 -2.334535811604504829e+01 5.222012244553901894e+00 1.919864894595786575e+00 5.222012244553901894e+00 -1.871892456530857629e+01
-2.701782468014178917e+01 1.159137374480512683e+01 2.467213184481986232e+00 1.159137374480512683e+01 -2.593261755902252830e+01 4.659923048022054815e+00 2.467213184481986232e+00 4.659923048022054815e+00 -2.046461643481938353e+01
-2.575839846860428040e+01 9.798464908694977993e+00 2.445700673845994100e+00 9.798464908694977993e+00 -2.812560381456220426e+01 3.488343427025951016e+00 2.445700673845994100e+00 3.488343427025951016e+00 -2.219377084968710534e+01
-2.504143762162659925e+01 7.279750681619761465e+00 1.877070199990141353e+00 7.279750681619761465e+00 -3.004763377982157024e+01 1.945845742558740543e+00 1.877070199990141353e+00 1.945845742558740543e+00 -2.393937058853137856e+01
-2.505562574427303701e+01 4.240175731287242122e+00 8.989649787181605012e-01 4.240175731287242122e+00 -3.179871529332469393e+01 5.048299872801600419e-01 8.989649787181605012e-01 5.048299872801600419e-01 -2.555027529290104482e+01
-2.576807218859049087e+01 9.441090053204560517e-01 -2.962922235775151680e-01 9.441090053204560517e-01 -3.351764320420699761e+01 -3.563614181585288421e-01 -2.962922235775151680e-01 -3.563614181585288421e-01 -2.683646546306705716e+01
-2.707190538139801106e+01 -2.245869258130935187e+00 -1.419503244642588591e+00 -2.245869258130935187e+00 -3.545598029744311219e+01 -3.149026182176452027e-01 -1.419503244642588591e+00 -3.149026182176452027e-01 -2.791531556819538906e+01
-2.874085240568491884e+01 -5.047562827469317170e+00 -2.221592827498884315e+00 -5.047562827469317170e+00 -3.760396072238029319e+01 7.120779216513105636e-01 -2.221592827498884315e+00 7.120779216513105636e-01 -2.891203118410749795e+01
-3.076413397346657419e+01 -7.112441391191661744e+00 -2.522767976402770174e+00 -7.112441391191661744e+00 -3.982629059521145365e+01 2.445654608512726647e+00 -2.522767976402770174e+00 2.445654608512726647e+00 -3.001386789053638537e+01
-3.314990364873136031e+01 -8.173279951012339950e+00 -2.374806125947083402e+00 -8.173279951012339950e+00 -4.175122267646668917e+01 4.516659861559667810e+00 -2.374806125947083402e+00 4.516659861559667810e+00 -3.147132896979151084e+01
-3.581814594759335790e+01 -8.108696353771096099e+00 -2.094498573013442222e+00 -8.108696353771096099e+00 -4.299793485602232579e+01 6.535288830681293959e+00 -2.094498573013442222e+00 6.535288830681293959e+00 -3.342224189900969833e+01
-3.852471460373405421e+01 -7.036802113966182937e+00 -1.966390881196111939e+00 -7.036802113966182937e+00 -4.315004258647209667e+01 8.316911660140867468e+00 -1.966390881196111939e+00 8.316911660140867468e+00 -3.579313247162902911e+01
-4.070457223929244606e+01 -5.120944903364681444e+00 -2.134345086289958449e+00 -5.120944903364681444e+00 -4.205216749870423598e+01 9.749958112764144147e+00 -2.134345086289958449e+00 9.749958112764144147e+00 -3.822275634416461543e+01
-4.186601748696966752e+01 -2.506506913759290800e+00 -2.435520235193844307e+00 -2.506506913759290800e+00 -3.981730785522427141e+01 1.077633980330062080e+01 -2.435520235193844307e+00 1.077633980330062080e+01 -4.009088986950082756e+01
-4.146971742486809376e+01 6.257975524410048784e-01 -2.735129162766630095e+00 6.257975524410048784e-01 -3.666731430104919554e+01 1.138140795577118425e+01 -2.735129162766630095e+00 1.138140795577118425e+01 -4.086663008172803302e+01
-3.920440859609820450e+01 4.100229248820125960e+00 -2.962093059776334414e+00 4.100229248820125960e+00 -3.278110459059056581e+01 1.148275168896001119e+01 -2.962093059776334414e+00 1.148275168896001119e+01 -4.023111274396755022e+01
-3.503637117670810142e+01 7.620495951800556611e+00 -3.167406250150243796e+00 7.620495951800556611e+00 -2.817240619316213568e+01 1.095622492971078898e+01 -3.167406250150243796e+00 1.095622492971078898e+01 -3.819438009887173990e+01
-2.930354045154924236e+01 1.085640135251979288e+01 -3.443660053756331774e+00 1.085640135251979288e+01 -2.294739970194583378e+01 9.678879303532161416e+00 -3.443660053756331774e+00 9.678879303532161416e+00 -3.513854408589574518e+01
-2.268989448897967875e+01 1.340971064487901643e+01 -3.924674263737117030e+00 1.340971064487901643e+01 -1.738607021254243534e+01 7.527904631932583079e+00 -3.924674263737117030e+00 7.527904631932583079e+00 -3.160731383359761537e+01
-1.607583393841070674e+01 1.494511426802300846e+01 -4.657665846691941169e+00 1.494511426802300846e+01 -1.189213430570960384e+01 4.547846092181866418e+00 -4.657665846691941169e+00 4.547846092181866418e+00 -2.810929668658545566e+01
-1.014068426954033875e+01 1.524062338093497182e+01 -5.567456178727997695e+00 1.524062338093497182e+01 -6.891005334174074903e+00 1.036285737189020839e+00 -5.567456178727997695e+00 1.036285737189020839e+00 -2.490448538582188220e+01
-5.447179593566167988e+00 1.422543556638253470e+01 -6.377837521572470969e+00 1.422543556638253470e+01 -2.919989345169703210e+00 -2.452656539169409289e+00 -6.377837521572470969e+00 -2.452656539169409289e+00 -2.197067644067188041e+01
-2.283873158076745291e+00 1.200361241221731312e+01 -6.860141560884750689e+00 1.200361241221731312e+01 -4.544805780186201294e-01 -5.270749367151074338e+00 -6.860141560884750689e+00 -5.270749367151074338e+00 -1.910140502742985902e+01
-8.560781534459798170e-01 8.841457610059579864e+00 -6.739588583723314485e+00 8.841457610059579864e+00 2.059120397063888067e-02 -6.966598546066285813e+00 -6.739588583723314485e+00 -6.966598546066285813e+00 -1.620297425822941761e+01
-1.198021122291734741e+00 5.170373005960868795e+00 -5.805107233055796456e+00 5.170373005960868795e+00 -1.942114450564060846e+00 -7.393347793457782480e+00 -5.805107233055796456e+00 -7.393347793457782480e+00 -1.332734582899645837e+01
-3.148611594177042949e+00 1.510482277846194599e+00 -3.952405594364241548e+00 1.510482277846194599e+00 -6.524371346696860918e+00 -6.661507843834650444e+00 -3.952405594364241548e+00 -6.661507843834650444e+00 -1.072755661537018135e+01
-6.447350109473352298e+00 -1.647618774983984125e+00 -1.406006101995167734e+00 -1.647618774983984125e+00 -1.347650537811710514e+01 -5.053735582127182546e+00 -1.406006101995167734e+00 -5.053735582127182546e+00 -8.845879882053274912e+00
-1.084912302986350596e+01 -4.052551628888109825e+00 1.367495483383413646e+00 -4.052551628888109825e+00 -2.197141348600416677e+01 -2.863697507916636908e+00 1.367495483383413646e+00 -2.863697507916636908e+00 -8.355836866752030190e+00
-1.600788757184092503e+01 -5.610296938666911259e+00 3.752297786649576583e+00 -5.610296938666911259e+00 -3.092034151857717106e+01 -3.144880302182363474e-01 3.752297786649576583e+00 -3.144880302182363474e-01 -9.864568661934054461e+00
-2.159275644654409732e+01 -6.404693610867509435e+00 5.277613101807953733e+00 -6.404693610867509435e+00 -3.914258891885302205e+01 2.413777397891514021e+00 5.277613101807953733e+00 2.413777397891514021e+00 -1.362313133390803088e+01
-2.716449670126598548e+01 -6.599780297256002015e+00 5.819479617035303143e+00 -6.599780297256002015e+00 -4.592303745318474029e+01 5.116706892704057097e+00 5.819479617035303143e+00 5.116706892704057097e+00 -1.910439927409225902e+01
-3.220842036740715741e+01 -6.234850727109689572e+00 5.553083794748492785e+00 -6.234850727109689572e+00 -5.095452347934364923e+01 7.604419150490147494e+00 5.553083794748492785e+00 7.604419150490147494e+00 -2.534334981586276925e+01
-3.623052281100535055e+01 -5.374258171003480911e+00 4.784161251844902374e+00 -5.374258171003480911e+00 -5.414510059212751969e+01 9.675931122203033752e+00 4.784161251844902374e+00 9.675931122203033752e+00 -3.134497176063835511e+01
-3.898988233907076761e+01 -4.093457644829781472e+00 3.643998188137335337e+00 -4.093457644829781472e+00 -5.573891505785488931e+01 1.110391038816687015e+01 3.643998188137335337e+00 1.110391038816687015e+01 -3.647434661999101735e+01
-4.041795373570113981e+01 -2.563351535011568316e+00 2.166360492910973878e+00 -2.563351535011568316e+00 -5.577475388713711624e+01 1.171160426463368864e+01 2.166360492910973878e+00 1.171160426463368864e+01 -4.029869058787119940e+01
-4.075588902055260832e+01 -9.650687319572361922e-01 4.015515100940920123e-01 -9.650687319572361922e-01 -5.434359611317781713e+01 1.132092417319076105e+01 4.015515100940920123e-01 1.132092417319076105e+01 -4.279612263097676106e+01
-4.033199582382370352e+01 5.040008112813422203e-01 -1.626060199014724761e+00 5.040008112813422203e-01 -5.155899278248173090e+01 9.829052289984696600e+00 -1.626060199014724761e+00 9.829052289984696600e+00 -4.413330712507006126e+01
-3.953128820096543450e+01 1.732839641529133834e+00 -3.721572209360055172e+00 1.732839641529133834e+00 -4.759267545747065498e+01 7.273347600295558379e+00 -3.721572209360055172e+00 7.273347600295558379e+00 -4.457816004843574120e+01
-3.858998918097431385e+01 2.678560933513957742e+00 -5.667141559919190108e+00 2.678560933513957742e+00 -4.259873267792488605e+01 3.855714459835447805e+00 -5.667141559919190108e+00 3.855714459835447805e+00 -4.421014410096049829e+01
-3.748842886654502848e+01 3.356642639213743617e+00 -7.274222841627643099e+00 3.356642639213743617e+00 -3.700018239924121843e+01 1.736663064190348618e-02 -7.274222841627643099e+00 1.736663064190348618e-02 -4.290115159082699847e+01
-3.606491793790815592e+01 3.809510930567996390e+00 -8.399138280023619174e+00 3.809510930567996390e+00 -3.130263771936538575e+01 -3.680067344085903969e+00 -8.399138280023619174e+00 -3.680067344085903969e+00 -4.048373503160733833e+01
-3.403187051947375608e+01 4.174670827380645655e+00 -8.919722611281315494e+00 4.174670827380645655e+00 -2.615414574670665004e+01 -6.771603990344329915e+00 -8.919722611281315494e+00 -6.771603990344329915e+00 -3.685401709678297522e+01
-3.119848400084723394e+01 4.566318290822192871e+00 -8.782355787477188258e+00 4.566318290822192871e+00 -2.217645028437846833e+01 -8.942156428582659800e+00 -8.782355787477188258e+00 -8.942156428582659800e+00 -3.194322224378530706e+01
-2.787067826025903727e+01 5.156553405980573324e+00 -7.930884167357972636e+00 5.156553405980573324e+00 -1.973945595852006107e+01 -1.007061889764024620e+01 -7.930884167357972636e+00 -1.007061889764024620e+01 -2.606519358816682086e+01
-2.441439630518737047e+01 6.062566380688684475e+00 -6.349323080279797082e+00 6.062566380688684475e+00 -1.884956585045562605e+01 -1.022180532142466802e+01 -6.349323080279797082e+00 -1.022180532142466802e+01 -1.956777046143153598e+01
-2.121119729108816188e+01 7.243359068338318885e+00 -4.215254385989443797e+00 7.243359068338318885e+00 -1.911209218474795435e+01 -9.542940505059332779e+00 -4.215254385989443797e+00 -9.542940505059332779e+00 -1.303538374674610267e+01
-1.845054793369125434e+01 8.505134611872477990e+00 -1.812025949416221637e+00 8.505134611872477990e+00 -1.987737556632339775e+01 -8.139836519060025921e+00 -1.812025949416221637e+00 -8.139836519060025921e+00 -7.149708245805189044e+00
-1.594961492525735025e+01 9.530088277077657821e+00 5.088837366077130220e-01 9.530088277077657821e+00 -2.042394074554405137e+01 -6.098635536637252663e+00 5.088837366077130220e-01 -6.098635536637252663e+00 -2.495865821774463811e+00
-1.366928879784221351e+01 1.024073817339767167e+01 2.515627849746285172e+00 1.024073817339767167e+01 -2.052072401073937868e+01 -3.553065220266997226e+00 2.515627849746285172e+00 -3.553065220266997226e+00 5.636554178629470391e-01
-1.148708183028717045e+01 1.043803599578300911e+01 3.970601401004962838e+00 1.043803599578300911e+01 -2.018255839922156980e+01 -5.532446525444585372e-01 3.970601401004962838e+00 -5.532446525444585372e-01 2.006559851805501005e+00
-9.503784971781831459e+00 1.010378593759295285e+01 4.776007687856529849e+00 1.010378593759295285e+01 -1.956159770677366794e+01 2.723198241450309087e+00 4.776007687856529849e+00 2.723198241450309087e+00 1.963765157199855782e+00
-7.980358335287426996e+00 9.218456297522015674e+00 4.867493439726080062e+00 9.218456297522015674e+00 -1.902654886086993358e+01 5.924278250219203734e+00 4.867493439726080062e+00 5.924278250219203734e+00 4.782963553179944705e-01
-7.112533521858197538e+00 7.790200639558573670e+00 4.279285199231475545e+00 7.790200639558573670e+00 -1.894911303564701655e+01 8.717541863569605809e+00 4.279285199231475545e+00 8.717541863569605809e+00 -2.417232297886587666e+00
-7.176794661766566108e+00 5.791103371742432060e+00 3.113601940893630182e+00 5.791103371742432060e+00 -1.966777829995560012e+01 1.068577535809642498e+01 3.113601940893630182e+00 1.068577535809642498e+01 -6.787174072988794826e+00
-8.309310880151704382e+00 3.286024483314438527e+00 1.505322960520217856e+00 3.286024483314438527e+00 -2.134280594823383481e+01 1.155097444752939850e+01 1.505322960520217856e+00 1.155097444752939850e+01 -1.268413558058028379e+01
-1.054085381963640167e+01 4.114094914133687997e-01 -3.472865475048020900e-01 4.114094914133687997e-01 -2.389229181793184154e+01 1.120437888002360971e+01 -3.472865475048020900e-01 1.120437888002360971e+01 -1.995969431687268880e+01
-1.372986471108917073e+01 -2.608864084280005269e+00 -2.242875011468537849e+00 -2.608864084280005269e+00 -2.715509937327938772e+01 9.861205892605514833e+00 -2.242875011468537849e+00 9.861205892605514833e+00 -2.820870567577704335e+01
-1.747889185907674658e+01 -5.590673106694893590e+00 -3.901779793103096416e+00 -5.590673106694893590e+00 -3.081319355339662280e+01 7.872565455441129956e+00 -3.901779793103096416e+00 7.872565455441129956e+00 -3.677105343156794248e+01
-2.152596171330600683e+01 -8.274623684201166895e+00 -5.047194304803176657e+00 -8.274623684201166895e+00 -3.472008659849242207e+01 5.674235621242408101e+00 -5.047194304803176657e+00 5.674235621242408101e+00 -4.496326623455328075e+01
-2.552917737026446332e+01 -1.038593610385729882e+01 -5.575701873382907792e+00 -1.038593610385729882e+01 -3.893050412448877040e+01 3.681311108084130534e+00 -5.575701873382907792e+00 3.681311108084130534e+00 -5.197910862188268766e+01
-2.926779375293354590e+01 -1.167097464069162349e+01 -5.384530740322166054e+00 -1.167097464069162349e+01 -4.344251138738840723e+01 2.205147503522333796e+00 -5.384530740322166054e+00 2.205147503522333796e+00 -5.710779250123633233e+01
-3.272108146134281981e+01 -1.203525929617218715e+01 -4.579308714803670632e+00 -1.203525929617218715e+01 -4.810648818473800503e+01 1.386566531356219878e+00 -4.579308714803670632e+00 1.386566531356219878e+00 -5.993127497321030717e+01
-3.574490206769780087e+01 -1.150817975292375195e+01 -3.228350686063342412e+00 -1.150817975292375195e+01 -5.258021515569222970e+01 1.164485559672886694e+00 -3.228350686063342412e+00 1.164485559672886694e+00 -6.032071130065501308e+01
-3.807147778971366137e+01 -1.026667295602735841e+01 -1.452992741928168963e+00 -1.026667295602735841e+01 -5.631588335703218462e+01 1.434152020621700885e+00 -1.452992741928168963e+00 1.434152020621700885e+00 -5.854848579918203910e+01
-3.930561413328722864e+01 -8.596850690408366802e+00 6.060355244691837395e-01 -8.596850690408366802e+00 -5.856027852449855686e+01 2.059028266397352702e+00 6.060355244691837395e-01 2.059028266397352702e+00 -5.513628836804751643e+01
-3.925885782002056601e+01 -6.692740139790116061e+00 2.747751064081965566e+00 -6.692740139790116061e+00 -5.876909268020081356e+01 2.974392503758796380e+00 2.747751064081965566e+00 2.974392503758796380e+00 -5.074105672498136244e+01
-3.755729653978016813e+01 -4.737174611911901145e+00 4.685535373318868047e+00 -4.737174611911901145e+00 -5.640548043023775904e+01 4.083000814178024740e+00 4.685535373318868047e+00 4.083000814178024740e+00 -4.569284898284630003e+01
-3.415956362329168172e+01 -2.818415285314538554e+00 6.124616384600207297e+00 -2.818415285314538554e+00 -5.145295038529960863e+01 5.314465368422072622e+00 6.124616384600207297e+00 5.314465368422072622e+00 -3.998189929098957407e+01
-2.924899909696034683e+01 -9.298287520074850487e-01 6.809838216956478618e+00 -9.298287520074850487e-01 -4.429748397283595551e+01 6.453568929464484683e+00 6.809838216956478618e+00 6.453568929464484683e+00 -3.353754342817862266e+01
-2.331647515208623389e+01 8.875868414010513741e-01 6.686014601133038582e+00 8.875868414010513741e-01 -3.568626089844808291e+01 7.248334124331225148e+00 6.686014601133038582e+00 7.248334124331225148e+00 -2.650755898353605033e+01
-1.703380860904472627e+01 2.496787128439816428e+00 5.912163067569812469e+00 2.496787128439816428e+00 -2.651207338619628118e+01 7.456871888033869133e+00 5.912163067569812469e+00 7.456871888033869133e+00 -1.924411542989303925e+01
-1.119355352670571335e+01 3.759391847972794576e+00 4.627953706734307282e+00 3.759391847972794576e+00 -1.775514566268283545e+01 6.908371964815978927e+00 4.627953706734307282e+00 6.908371964815978927e+00 -1.241976663295724848e+01
-6.317077346992442166e+00 4.565304853490305348e+00 3.062100898300399443e+00 4.565304853490305348e+00 -1.015321404018913931e+01 5.559394745406160077e+00 3.062100898300399443e+00 5.559394745406160077e+00 -6.711534795763316907e+00
-2.802292418670861540e+00 4.876706506379609785e+00 1.338105800758653929e+00 4.876706506379609785e+00 -4.226171869973876838e+00 3.599959729533463104e+00 1.338105800758653929e+00 3.599959729533463104e+00 -2.607389993615440549e+00
-6.515941390708880343e-01 4.738740833243001660e+00 -4.104421194147481744e-01 4.738740833243001660e+00 -1.063648545150003982e-01 1.411626072653820785e+00 -4.104421194147481744e-01 1.411626072653820785e+00 -2.379274463274045348e-01
3.218584835410601142e-01 4.223131557978211603e+00 -2.106890147662439539e+00 4.223131557978211603e+00 2.239880764806140956e+00 -6.354712724272111313e-01 -2.106890147662439539e+00 -6.354712724272111313e-01 2.862960462584354659e-01
3.887453474456857849e-01 3.590239944213989176e+00 -3.685733380077824695e+00 3.590239944213989176e+00 2.756503477402818980e+00 -2.137016875619481837e+00 -3.685733380077824695e+00 -2.137016875619481837e+00 -1.005698355899302010e+00
-2.638622289570906054e-01 3.034507763673077729e+00 -5.074418916764356524e+00 3.034507763673077729e+00 1.333959920764565377e+00 -2.862960462584354993e+00 -5.074418916764356524e+00 -2.862960462584354993e+00 -3.988336554313007820e+00
-1.749054638839346199e+00 2.593247936302272461e+00 -6.153867871225163988e+00 2.593247936302272461e+00 -2.116702063648448817e+00 -2.742038962756776943e+00 -6.153867871225163988e+00 -2.742038962756776943e+00 -8.269049778875780632e+00
-4.271223765909637038e+00 2.277700403418880359e+00 -6.824118470269449510e+00 2.277700403418880359e+00 -7.545731915907163412e+00 -1.902452198620615764e+00 -6.824118470269449510e+00 -1.902452198620615764e+00 -1.320849726916592637e+01
-7.967920695305162226e+00 2.014897677126945563e+00 -6.991105303364674839e+00 2.014897677126945563e+00 -1.474394695764318719e+01 -5.262043019163488156e-01 -6.991105303364674839e+00 -5.262043019163488156e-01 -1.811662033283407069e+01
-1.257560565540170394e+01 1.700593908241779806e+00 -6.570114222631636025e+00 1.700593908241779806e+00 -2.308545750574897681e+01 1.208984671609435013e+00 -6.570114222631636025e+00 1.208984671609435013e+00 -2.245371752531644560e+01
-1.752744472034084566e+01 1.207095992945461438e+00 -5.453168086890961774e+00 1.207095992945461438e+00 -3.176213941871017710e+01 3.169893778146696484e+00 -5.453168086890961774e+00 3.169893778146696484e+00 -2.612655261207932966e+01
-2.229953685486962556e+01 4.347185500467989350e-01 -3.826555103877026021e+00 4.347185500467989350e-01 -3.986908528981710020e+01 5.276231141809924807e+00 -3.826555103877026021e+00 5.276231141809924807e+00 -2.928133696091423843e+01
-2.625046835856930372e+01 -7.386115536134761905e-01 -1.862836012010437914e+00 -7.386115536134761905e-01 -4.654653173896235785e+01 7.431167432070521883e+00 -1.862836012010437914e+00 7.431167432070521883e+00 -3.202982507032848503e+01
-2.896984317735839554e+01 -2.348641016651058955e+00 1.886375397310206259e-01 -2.348641016651058955e+00 -5.114661591906973825e+01 9.515117043765672022e+00 1.886375397310206259e-01 9.515117043765672022e+00 -3.425390542582382380e+01
-3.046088588456564494e+01 -4.245335048613219087e+00 2.068517725050488476e+00 -4.245335048613219087e+00 -5.338847749320638769e+01 1.132258252518839647e+01 2.068517725050488476e+00 1.132258252518839647e+01 -3.587139747285076652e+01
-3.094908628653618266e+01 -6.316109974993821652e+00 3.589502898881706816e+00 -6.316109974993821652e+00 -5.335706093591785759e+01 1.261144448468393442e+01 3.589502898881706816e+00 1.261144448468393442e+01 -3.672858119429516677e+01
-3.079352365609133457e+01 -8.369241878732916362e+00 4.723170750598536749e+00 -8.369241878732916362e+00 -5.145290431996632918e+01 1.313622076126898541e+01 4.723170750598536749e+00 1.313622076126898541e+01 -3.681831646350055109e+01
-3.036672834336657090e+01 -1.020959800810874185e+01 5.517060704133190718e+00 -1.020959800810874185e+01 -4.822459969923626488e+01 1.269247340590172968e+01 5.517060704133190718e+00 1.269247340590172968e+01 -3.646531781467055566e+01
-2.987544156406709916e+01 -1.163135845408144498e+01 5.987710214128755482e+00 -1.163135845408144498e+01 -4.416702694902198090e+01 1.118153047472285699e+01 5.987710214128755482e+00 1.118153047472285699e+01 -3.593072962209949850e+01
-2.927424289959101955e+01 -1.242704495561353895e+01 6.154236393891304502e+00 -1.242704495561353895e+01 -3.971858984603169773e+01 8.747806787526451799e+00 6.154236393891304502e+00 8.747806787526451799e+00 -3.548062525074129780e+01
-2.853203824998266569e+01 -1.250779748483172504e+01 5.916723535563308545e+00 -1.250779748483172504e+01 -3.504959192735591245e+01 5.734074489157082510e+00 5.916723535563308545e+00 5.734074489157082510e+00 -3.520165359247242520e+01
-2.737464675163299788e+01 -1.181502093781955764e+01 5.182994907276204266e+00 -1.181502093781955764e+01 -3.018099291963141084e+01 2.595689398965457695e+00 5.182994907276204266e+00 2.595689398965457695e+00 -3.490425580089648605e+01
-2.578069408990582190e+01 -1.025971709070394233e+01 3.922877715739678806e+00 -1.025971709070394233e+01 -2.513015945350009162e+01 -2.357623756638250745e-01 3.922877715739678806e+00 -2.357623756638250745e-01 -3.446571382818846985e+01
-2.382236464203155180e+01 -7.985747979279742559e+00 2.222283807497899222e+00 -7.985747979279742559e+00 -2.005721462740029892e+01 -2.509409029755151899e+00 2.222283807497899222e+00 -2.509409029755151899e+00 -3.356900605080042510e+01
-2.163200411048813265e+01 -5.217037188560996519e+00 2.567221023006051039e-01 -5.217037188560996519e+00 -1.523951781293654939e+01 -4.099169746154969651e+00 2.567221023006051039e-01 -4.099169746154969651e+00 -3.191678074248967434e+01
-1.917193105266263231e+01 -2.202706040859148562e+00 -1.705200441568544667e+00 -2.202706040859148562e+00 -1.099828257898415096e+01 -5.016330531513851554e+00 -1.705200441568544667e+00 -5.016330531513851554e+00 -2.931625448353111452e+01
-1.635715492867623766e+01 7.411451469431967753e-01 -3.370370108527502850e+00 7.411451469431967753e-01 -7.797663223547933065e+00 -5.342196699049196695e+00 -3.370370108527502850e+00 -5.342196699049196695e+00 -2.572154620199016151e+01
-1.299636640946840416e+01 3.264650168678249642e+00 -4.498003401586270655e+00 3.264650168678249642e+00 -5.929806090211322100e+00 -5.163555336637255522e+00 -4.498003401586270655e+00 -5.163555336637255522e+00 -2.132456407625984696e+01
-9.157880384275058461e+00 5.166365321966582158e+00 -5.005413047529418513e+00 5.166365321966582158e+00 -5.450542362894705839e+00 -4.535823040199010059e+00 -5.005413047529418513e+00 -4.535823040199010059e+00 -1.661355457364397026e+01
-4.966165383585383175e+00 6.193345861835538813e+00 -4.870119163722335109e+00 6.193345861835538813e+00 -6.094673917976235700e+00 -3.547445249608343953e+00 -4.870119163722335109e+00 -3.547445249608343953e+00 -1.221385459325085954e+01
-6.691910963791298794e-01 6.311134919000915389e+00 -4.101749404817957689e+00 6.311134919000915389e+00 -7.506806709295999802e+00 -2.250613987457502851e+00 -4.101749404817957689e+00 -2.250613987457502851e+00 -8.611453401054211199e+00
3.503959575003683824e+00 5.508446486812140108e+00 -2.737432429430012082e+00 5.508446486812140108e+00 -9.289258714754391022e+00 -7.596634109167914595e-01 -2.737432429430012082e+00 -7.596634109167914595e-01 -6.120977223272062062e+00
7.115389572520791184e+00 3.933657003724308598e+00 -9.572376253017359504e-01 3.933657003724308598e+00 -1.130848653320849628e+01 8.870801227351071683e-01 -9.572376253017359504e-01 8.870801227351071683e-01 -4.940230600955696438e+00
9.736092447450582554e+00 1.813684301413857058e+00 9.849228905955926816e-01 1.813684301413857058e+00 -1.373216797775255493e+01 2.621163528262467679e+00 9.849228905955926816e-01 2.621163528262467679e+00 -5.208422971239945909e+00
1.101491216429377218e+01 -6.614981857234325524e-01 2.760695422730174986e+00 -6.614981857234325524e-01 -1.670467180284737907e+01 4.282970425892887789e+00 2.760695422730174986e+00 4.282970425892887789e+00 -7.013493055332753023e+00
1.057719936758457457e+01 -3.283859412650858900e+00 4.157810915404686725e+00 -3.283859412650858900e+00 -2.043296955086450950e+01 5.582104954707110878e+00 4.157810915404686725e+00 5.582104954707110878e+00 -1.031301468129461263e+01
8.300143878831443445e+00 -5.819617813035105947e+00 5.106342192718837047e+00 -5.819617813035105947e+00 -2.484068489924618817e+01 6.283357523040523418e+00 5.106342192718837047e+00 6.283357523040523418e+00 -1.486611222146899181e+01
4.342855359140830984e+00 -8.060327753840065057e+00 5.670826786580601464e+00 -8.060327753840065057e+00 -2.974074652959249221e+01 6.213891000472909987e+00 5.670826786580601464e+00 6.213891000472909987e+00 -2.009286919534945781e+01
-9.069342813734637687e-01 -9.854434288615170345e+00 5.932616075540648737e+00 -9.854434288615170345e+00 -3.466913833989841009e+01 5.426404128262459103e+00 5.932616075540648737e+00 5.426404128262459103e+00 -2.530953786124431559e+01
-6.957707936745629596e+00 -1.121326948934426682e+01 5.905944247578680084e+00 -1.121326948934426682e+01 -3.922665815206647721e+01 4.220644029981759360e+00 5.905944247578680084e+00 4.220644029981759360e+00 -3.002123834385920631e+01
-1.332808287432874117e+01 -1.202397328952161182e+01 5.552577076082547691e+00 -1.202397328952161182e+01 -4.303805776129844674e+01 2.981394434415478578e+00 5.552577076082547691e+00 2.981394434415478578e+00 -3.382973583709531340e+01
-1.974572084384445958e+01 -1.227341706916593012e+01 4.824099895787955283e+00 -1.227341706916593012e+01 -4.597260375178073133e+01 1.981408179841365191e+00 4.824099895787955283e+00 1.981408179841365191e+00 -3.649788600529078764e+01
-2.593003790035954026e+01 -1.188812662171531720e+01 3.777495523946980516e+00 -1.188812662171531720e+01 -4.798519816224428780e+01 1.348378370077339516e+00 3.777495523946980516e+00 1.348378370077339516e+00 -3.781530847141225848e+01
-3.154079549235912694e+01 -1.080061623393267212e+01 2.565977259007824696e+00 -1.080061623393267212e+01 -4.913609444860322384e+01 1.095433625104681452e+00 2.565977259007824696e+00 1.095433625104681452e+00 -3.767660575294337377e+01
-3.615078371911905464e+01 -9.001949231164067200e+00 1.423649124636676921e+00 -9.001949231164067200e+00 -4.956791088265416079e+01 1.093222489107834372e+00 1.423649124636676921e+00 1.093222489107834372e+00 -3.608186998055064976e+01
-3.921274642141965217e+01 -6.630505874545523426e+00 6.044232378048159937e-01 -6.630505874545523426e+00 -4.921357633915940255e+01 1.176831068988616336e+00 6.044232378048159937e-01 1.176831068988616336e+00 -3.310701682345917618e+01
-4.034788836380104016e+01 -3.866033094487400845e+00 1.941193143898707896e-01 -3.866033094487400845e+00 -4.797497165825887322e+01 1.314290023459279588e+00 1.941193143898707896e-01 1.314290023459279588e+00 -2.897730576134775404e+01